ITEM: TIMESTEP
0
ITEM: NUMBER OF ATOMS
15471
ITEM: BOX BOUNDS pp pp ff
0.0000000000000000e+00 3.6840000000000003e+01
0.0000000000000000e+00 3.8285251000000002e+01
0.0000000000000000e+00 1.3740000000000001e+02
ITEM: ATOMS id mol type x y z q
1 1 1 0 0 1 0
2 1 1 0 0 4.35 0
3 1 1 0 0 7.7 0
4 1 1 35.61 2.13 1 0
5 1 1 35.61 2.13 4.35 0
6 1 1 35.61 2.13 7.7 0
7 1 1 34.38 4.25 1 0
8 1 1 34.38 4.25 4.35 0
9 1 1 34.38 4.25 7.7 0
10 1 1 33.16 6.38 1 0
11 1 1 33.16 6.38 4.35 0
12 1 1 33.16 6.38 7.7 0
13 1 1 31.93 8.51 1 0
14 1 1 31.93 8.51 4.35 0
15 1 1 31.93 8.51 7.7 0
16 1 1 30.7 10.63 1 0
17 1 1 30.7 10.63 4.35 0
18 1 1 30.7 10.63 7.7 0
19 1 1 29.47 12.76 1 0
20 1 1 29.47 12.76 4.35 0
21 1 1 29.47 12.76 7.7 0
22 1 1 28.24 14.89 1 0
23 1 1 28.24 14.89 4.35 0
24 1 1 28.24 14.89 7.7 0
25 1 1 27.02 17.02 1 0
26 1 1 27.02 17.02 4.35 0
27 1 1 27.02 17.02 7.7 0
28 1 1 25.79 19.14 1 0
29 1 1 25.79 19.14 4.35 0
30 1 1 25.79 19.14 7.7 0
31 1 1 24.56 21.27 1 0
32 1 1 24.56 21.27 4.35 0
33 1 1 24.56 21.27 7.7 0
34 1 1 23.33 23.4 1 0
35 1 1 23.33 23.4 4.35 0
36 1 1 23.33 23.4 7.7 0
37 1 1 22.1 25.52 1 0
38 1 1 22.1 25.52 4.35 0
39 1 1 22.1 25.52 7.7 0
40 1 1 20.88 27.65 1 0
41 1 1 20.88 27.65 4.35 0
42 1 1 20.88 27.65 7.7 0
43 1 1 19.65 29.78 1 0
44 1 1 19.65 29.78 4.35 0
45 1 1 19.65 29.78 7.7 0
46 1 1 18.42 31.9 1 0
47 1 1 18.42 31.9 4.35 0
48 1 1 18.42 31.9 7.7 0
49 1 1 17.19 34.03 1 0
50 1 1 17.19 34.03 4.35 0
51 1 1 17.19 34.03 7.7 0
52 1 1 15.96 36.16 1 0
53 1 1 15.96 36.16 4.35 0
54 1 1 15.96 36.16 7.7 0
55 1 1 2.46 0 1 0
56 1 1 2.46 0 4.35 0
57 1 1 2.46 0 7.7 0
58 1 1 1.23 2.13 1 0
59 1 1 1.23 2.13 4.35 0
60 1 1 1.23 2.13 7.7 0
61 1 1 0 4.25 1 0
62 1 1 0 4.25 4.35 0
63 1 1 0 4.25 7.7 0
64 1 1 35.61 6.38 1 0
65 1 1 35.61 6.38 4.35 0
66 1 1 35.61 6.38 7.7 0
67 1 1 34.38 8.51 1 0
68 1 1 34.38 8.51 4.35 0
69 1 1 34.38 8.51 7.7 0
70 1 1 33.16 10.63 1 0
71 1 1 33.16 10.63 4.35 0
72 1 1 33.16 10.63 7.7 0
73 1 1 31.93 12.76 1 0
74 1 1 31.93 12.76 4.35 0
75 1 1 31.93 12.76 7.7 0
76 1 1 30.7 14.89 1 0
77 1 1 30.7 14.89 4.35 0
78 1 1 30.7 14.89 7.7 0
79 1 1 29.47 17.02 1 0
80 1 1 29.47 17.02 4.35 0
81 1 1 29.47 17.02 7.7 0
82 1 1 28.24 19.14 1 0
83 1 1 28.24 19.14 4.35 0
84 1 1 28.24 19.14 7.7 0
85 1 1 27.02 21.27 1 0
86 1 1 27.02 21.27 4.35 0
87 1 1 27.02 21.27 7.7 0
88 1 1 25.79 23.4 1 0
89 1 1 25.79 23.4 4.35 0
90 1 1 25.79 23.4 7.7 0
91 1 1 24.56 25.52 1 0
92 1 1 24.56 25.52 4.35 0
93 1 1 24.56 25.52 7.7 0
94 1 1 23.33 27.65 1 0
95 1 1 23.33 27.65 4.35 0
96 1 1 23.33 27.65 7.7 0
97 1 1 22.1 29.78 1 0
98 1 1 22.1 29.78 4.35 0
99 1 1 22.1 29.78 7.7 0
100 1 1 20.88 31.9 1 0
101 1 1 20.88 31.9 4.35 0
102 1 1 20.88 31.9 7.7 0
103 1 1 19.65 34.03 1 0
104 1 1 19.65 34.03 4.35 0
105 1 1 19.65 34.03 7.7 0
106 1 1 18.42 36.16 1 0
107 1 1 18.42 36.16 4.35 0
108 1 1 18.42 36.16 7.7 0
109 1 1 4.91 0 1 0
110 1 1 4.91 0 4.35 0
111 1 1 4.91 0 7.7 0
112 1 1 3.68 2.13 1 0
113 1 1 3.68 2.13 4.35 0
114 1 1 3.68 2.13 7.7 0
115 1 1 2.46 4.25 1 0
116 1 1 2.46 4.25 4.35 0
117 1 1 2.46 4.25 7.7 0
118 1 1 1.23 6.38 1 0
119 1 1 1.23 6.38 4.35 0
120 1 1 1.23 6.38 7.7 0
121 1 1 0 8.51 1 0
122 1 1 0 8.51 4.35 0
123 1 1 0 8.51 7.7 0
124 1 1 35.61 10.63 1 0
125 1 1 35.61 10.63 4.35 0
126 1 1 35.61 10.63 7.7 0
127 1 1 34.38 12.76 1 0
128 1 1 34.38 12.76 4.35 0
129 1 1 34.38 12.76 7.7 0
130 1 1 33.16 14.89 1 0
131 1 1 33.16 14.89 4.35 0
132 1 1 33.16 14.89 7.7 0
133 1 1 31.93 17.02 1 0
134 1 1 31.93 17.02 4.35 0
135 1 1 31.93 17.02 7.7 0
136 1 1 30.7 19.14 1 0
137 1 1 30.7 19.14 4.35 0
138 1 1 30.7 19.14 7.7 0
139 1 1 29.47 21.27 1 0
140 1 1 29.47 21.27 4.35 0
141 1 1 29.47 21.27 7.7 0
142 1 1 28.24 23.4 1 0
143 1 1 28.24 23.4 4.35 0
144 1 1 28.24 23.4 7.7 0
145 1 1 27.02 25.52 1 0
146 1 1 27.02 25.52 4.35 0
147 1 1 27.02 25.52 7.7 0
148 1 1 25.79 27.65 1 0
149 1 1 25.79 27.65 4.35 0
150 1 1 25.79 27.65 7.7 0
151 1 1 24.56 29.78 1 0
152 1 1 24.56 29.78 4.35 0
153 1 1 24.56 29.78 7.7 0
154 1 1 23.33 31.9 1 0
155 1 1 23.33 31.9 4.35 0
156 1 1 23.33 31.9 7.7 0
157 1 1 22.1 34.03 1 0
158 1 1 22.1 34.03 4.35 0
159 1 1 22.1 34.03 7.7 0
160 1 1 20.88 36.16 1 0
161 1 1 20.88 36.16 4.35 0
162 1 1 20.88 36.16 7.7 0
163 1 1 7.37 0 1 0
164 1 1 7.37 0 4.35 0
165 1 1 7.37 0 7.7 0
166 1 1 6.14 2.13 1 0
167 1 1 6.14 2.13 4.35 0
168 1 1 6.14 2.13 7.7 0
169 1 1 4.91 4.25 1 0
170 1 1 4.91 4.25 4.35 0
171 1 1 4.91 4.25 7.7 0
172 1 1 3.68 6.38 1 0
173 1 1 3.68 6.38 4.35 0
174 1 1 3.68 6.38 7.7 0
175 1 1 2.46 8.51 1 0
176 1 1 2.46 8.51 4.35 0
177 1 1 2.46 8.51 7.7 0
178 1 1 1.23 10.63 1 0
179 1 1 1.23 10.63 4.35 0
180 1 1 1.23 10.63 7.7 0
181 1 1 0 12.76 1 0
182 1 1 0 12.76 4.35 0
183 1 1 0 12.76 7.7 0
184 1 1 35.61 14.89 1 0
185 1 1 35.61 14.89 4.35 0
186 1 1 35.61 14.89 7.7 0
187 1 1 34.38 17.02 1 0
188 1 1 34.38 17.02 4.35 0
189 1 1 34.38 17.02 7.7 0
190 1 1 33.16 19.14 1 0
191 1 1 33.16 19.14 4.35 0
192 1 1 33.16 19.14 7.7 0
193 1 1 31.93 21.27 1 0
194 1 1 31.93 21.27 4.35 0
195 1 1 31.93 21.27 7.7 0
196 1 1 30.7 23.4 1 0
197 1 1 30.7 23.4 4.35 0
198 1 1 30.7 23.4 7.7 0
199 1 1 29.47 25.52 1 0
200 1 1 29.47 25.52 4.35 0
201 1 1 29.47 25.52 7.7 0
202 1 1 28.24 27.65 1 0
203 1 1 28.24 27.65 4.35 0
204 1 1 28.24 27.65 7.7 0
205 1 1 27.02 29.78 1 0
206 1 1 27.02 29.78 4.35 0
207 1 1 27.02 29.78 7.7 0
208 1 1 25.79 31.9 1 0
209 1 1 25.79 31.9 4.35 0
210 1 1 25.79 31.9 7.7 0
211 1 1 24.56 34.03 1 0
212 1 1 24.56 34.03 4.35 0
213 1 1 24.56 34.03 7.7 0
214 1 1 23.33 36.16 1 0
215 1 1 23.33 36.16 4.35 0
216 1 1 23.33 36.16 7.7 0
217 1 1 9.82 0 1 0
218 1 1 9.82 0 4.35 0
219 1 1 9.82 0 7.7 0
220 1 1 8.6 2.13 1 0
221 1 1 8.6 2.13 4.35 0
222 1 1 8.6 2.13 7.7 0
223 1 1 7.37 4.25 1 0
224 1 1 7.37 4.25 4.35 0
225 1 1 7.37 4.25 7.7 0
226 1 1 6.14 6.38 1 0
227 1 1 6.14 6.38 4.35 0
228 1 1 6.14 6.38 7.7 0
229 1 1 4.91 8.51 1 0
230 1 1 4.91 8.51 4.35 0
231 1 1 4.91 8.51 7.7 0
232 1 1 3.68 10.63 1 0
233 1 1 3.68 10.63 4.35 0
234 1 1 3.68 10.63 7.7 0
235 1 1 2.46 12.76 1 0
236 1 1 2.46 12.76 4.35 0
237 1 1 2.46 12.76 7.7 0
238 1 1 1.23 14.89 1 0
239 1 1 1.23 14.89 4.35 0
240 1 1 1.23 14.89 7.7 0
241 1 1 0 17.02 1 0
242 1 1 0 17.02 4.35 0
243 1 1 0 17.02 7.7 0
244 1 1 35.61 19.14 1 0
245 1 1 35.61 19.14 4.35 0
246 1 1 35.61 19.14 7.7 0
247 1 1 34.38 21.27 1 0
248 1 1 34.38 21.27 4.35 0
249 1 1 34.38 21.27 7.7 0
250 1 1 33.16 23.4 1 0
251 1 1 33.16 23.4 4.35 0
252 1 1 33.16 23.4 7.7 0
253 1 1 31.93 25.52 1 0
254 1 1 31.93 25.52 4.35 0
255 1 1 31.93 25.52 7.7 0
256 1 1 30.7 27.65 1 0
257 1 1 30.7 27.65 4.35 0
258 1 1 30.7 27.65 7.7 0
259 1 1 29.47 29.78 1 0
260 1 1 29.47 29.78 4.35 0
261 1 1 29.47 29.78 7.7 0
262 1 1 28.24 31.9 1 0
263 1 1 28.24 31.9 4.35 0
264 1 1 28.24 31.9 7.7 0
265 1 1 27.02 34.03 1 0
266 1 1 27.02 34.03 4.35 0
267 1 1 27.02 34.03 7.7 0
268 1 1 25.79 36.16 1 0
269 1 1 25.79 36.16 4.35 0
270 1 1 25.79 36.16 7.7 0
271 1 1 12.28 0 1 0
272 1 1 12.28 0 4.35 0
273 1 1 12.28 0 7.7 0
274 1 1 11.05 2.13 1 0
275 1 1 11.05 2.13 4.35 0
276 1 1 11.05 2.13 7.7 0
277 1 1 9.82 4.25 1 0
278 1 1 9.82 4.25 4.35 0
279 1 1 9.82 4.25 7.7 0
280 1 1 8.6 6.38 1 0
281 1 1 8.6 6.38 4.35 0
282 1 1 8.6 6.38 7.7 0
283 1 1 7.37 8.51 1 0
284 1 1 7.37 8.51 4.35 0
285 1 1 7.37 8.51 7.7 0
286 1 1 6.14 10.63 1 0
287 1 1 6.14 10.63 4.35 0
288 1 1 6.14 10.63 7.7 0
289 1 1 4.91 12.76 1 0
290 1 1 4.91 12.76 4.35 0
291 1 1 4.91 12.76 7.7 0
292 1 1 3.68 14.89 1 0
293 1 1 3.68 14.89 4.35 0
294 1 1 3.68 14.89 7.7 0
295 1 1 2.46 17.02 1 0
296 1 1 2.46 17.02 4.35 0
297 1 1 2.46 17.02 7.7 0
298 1 1 1.23 19.14 1 0
299 1 1 1.23 19.14 4.35 0
300 1 1 1.23 19.14 7.7 0
301 1 1 0 21.27 1 0
302 1 1 0 21.27 4.35 0
303 1 1 0 21.27 7.7 0
304 1 1 35.61 23.4 1 0
305 1 1 35.61 23.4 4.35 0
306 1 1 35.61 23.4 7.7 0
307 1 1 34.38 25.52 1 0
308 1 1 34.38 25.52 4.35 0
309 1 1 34.38 25.52 7.7 0
310 1 1 33.16 27.65 1 0
311 1 1 33.16 27.65 4.35 0
312 1 1 33.16 27.65 7.7 0
313 1 1 31.93 29.78 1 0
314 1 1 31.93 29.78 4.35 0
315 1 1 31.93 29.78 7.7 0
316 1 1 30.7 31.9 1 0
317 1 1 30.7 31.9 4.35 0
318 1 1 30.7 31.9 7.7 0
319 1 1 29.47 34.03 1 0
320 1 1 29.47 34.03 4.35 0
321 1 1 29.47 34.03 7.7 0
322 1 1 28.24 36.16 1 0
323 1 1 28.24 36.16 4.35 0
324 1 1 28.24 36.16 7.7 0
325 1 1 14.74 0 1 0
326 1 1 14.74 0 4.35 0
327 1 1 14.74 0 7.7 0
328 1 1 13.51 2.13 1 0
329 1 1 13.51 2.13 4.35 0
330 1 1 13.51 2.13 7.7 0
331 1 1 12.28 4.25 1 0
332 1 1 12.28 4.25 4.35 0
333 1 1 12.28 4.25 7.7 0
334 1 1 11.05 6.38 1 0
335 1 1 11.05 6.38 4.35 0
336 1 1 11.05 6.38 7.7 0
337 1 1 9.82 8.51 1 0
338 1 1 9.82 8.51 4.35 0
339 1 1 9.82 8.51 7.7 0
340 1 1 8.6 10.63 1 0
341 1 1 8.6 10.63 4.35 0
342 1 1 8.6 10.63 7.7 0
343 1 1 7.37 12.76 1 0
344 1 1 7.37 12.76 4.35 0
345 1 1 7.37 12.76 7.7 0
346 1 1 6.14 14.89 1 0
347 1 1 6.14 14.89 4.35 0
348 1 1 6.14 14.89 7.7 0
349 1 1 4.91 17.02 1 0
350 1 1 4.91 17.02 4.35 0
351 1 1 4.91 17.02 7.7 0
352 1 1 3.68 19.14 1 0
353 1 1 3.68 19.14 4.35 0
354 1 1 3.68 19.14 7.7 0
355 1 1 2.46 21.27 1 0
356 1 1 2.46 21.27 4.35 0
357 1 1 2.46 21.27 7.7 0
358 1 1 1.23 23.4 1 0
359 1 1 1.23 23.4 4.35 0
360 1 1 1.23 23.4 7.7 0
361 1 1 0 25.52 1 0
362 1 1 0 25.52 4.35 0
363 1 1 0 25.52 7.7 0
364 1 1 35.61 27.65 1 0
365 1 1 35.61 27.65 4.35 0
366 1 1 35.61 27.65 7.7 0
367 1 1 34.38 29.78 1 0
368 1 1 34.38 29.78 4.35 0
369 1 1 34.38 29.78 7.7 0
370 1 1 33.16 31.9 1 0
371 1 1 33.16 31.9 4.35 0
372 1 1 33.16 31.9 7.7 0
373 1 1 31.93 34.03 1 0
374 1 1 31.93 34.03 4.35 0
375 1 1 31.93 34.03 7.7 0
376 1 1 30.7 36.16 1 0
377 1 1 30.7 36.16 4.35 0
378 1 1 30.7 36.16 7.7 0
379 1 1 17.19 0 1 0
380 1 1 17.19 0 4.35 0
381 1 1 17.19 0 7.7 0
382 1 1 15.96 2.13 1 0
383 1 1 15.96 2.13 4.35 0
384 1 1 15.96 2.13 7.7 0
385 1 1 14.74 4.25 1 0
386 1 1 14.74 4.25 4.35 0
387 1 1 14.74 4.25 7.7 0
388 1 1 13.51 6.38 1 0
389 1 1 13.51 6.38 4.35 0
390 1 1 13.51 6.38 7.7 0
391 1 1 12.28 8.51 1 0
392 1 1 12.28 8.51 4.35 0
393 1 1 12.28 8.51 7.7 0
394 1 1 11.05 10.63 1 0
395 1 1 11.05 10.63 4.35 0
396 1 1 11.05 10.63 7.7 0
397 1 1 9.82 12.76 1 0
398 1 1 9.82 12.76 4.35 0
399 1 1 9.82 12.76 7.7 0
400 1 1 8.6 14.89 1 0
401 1 1 8.6 14.89 4.35 0
402 1 1 8.6 14.89 7.7 0
403 1 1 7.37 17.02 1 0
404 1 1 7.37 17.02 4.35 0
405 1 1 7.37 17.02 7.7 0
406 1 1 6.14 19.14 1 0
407 1 1 6.14 19.14 4.35 0
408 1 1 6.14 19.14 7.7 0
409 1 1 4.91 21.27 1 0
410 1 1 4.91 21.27 4.35 0
411 1 1 4.91 21.27 7.7 0
412 1 1 3.68 23.4 1 0
413 1 1 3.68 23.4 4.35 0
414 1 1 3.68 23.4 7.7 0
415 1 1 2.46 25.52 1 0
416 1 1 2.46 25.52 4.35 0
417 1 1 2.46 25.52 7.7 0
418 1 1 1.23 27.65 1 0
419 1 1 1.23 27.65 4.35 0
420 1 1 1.23 27.65 7.7 0
421 1 1 0 29.78 1 0
422 1 1 0 29.78 4.35 0
423 1 1 0 29.78 7.7 0
424 1 1 35.61 31.9 1 0
425 1 1 35.61 31.9 4.35 0
426 1 1 35.61 31.9 7.7 0
427 1 1 34.38 34.03 1 0
428 1 1 34.38 34.03 4.35 0
429 1 1 34.38 34.03 7.7 0
430 1 1 33.16 36.16 1 0
431 1 1 33.16 36.16 4.35 0
432 1 1 33.16 36.16 7.7 0
433 1 1 19.65 0 1 0
434 1 1 19.65 0 4.35 0
435 1 1 19.65 0 7.7 0
436 1 1 18.42 2.13 1 0
437 1 1 18.42 2.13 4.35 0
438 1 1 18.42 2.13 7.7 0
439 1 1 17.19 4.25 1 0
440 1 1 17.19 4.25 4.35 0
441 1 1 17.19 4.25 7.7 0
442 1 1 15.96 6.38 1 0
443 1 1 15.96 6.38 4.35 0
444 1 1 15.96 6.38 7.7 0
445 1 1 14.74 8.51 1 0
446 1 1 14.74 8.51 4.35 0
447 1 1 14.74 8.51 7.7 0
448 1 1 13.51 10.63 1 0
449 1 1 13.51 10.63 4.35 0
450 1 1 13.51 10.63 7.7 0
451 1 1 12.28 12.76 1 0
452 1 1 12.28 12.76 4.35 0
453 1 1 12.28 12.76 7.7 0
454 1 1 11.05 14.89 1 0
455 1 1 11.05 14.89 4.35 0
456 1 1 11.05 14.89 7.7 0
457 1 1 9.82 17.02 1 0
458 1 1 9.82 17.02 4.35 0
459 1 1 9.82 17.02 7.7 0
460 1 1 8.6 19.14 1 0
461 1 1 8.6 19.14 4.35 0
462 1 1 8.6 19.14 7.7 0
463 1 1 7.37 21.27 1 0
464 1 1 7.37 21.27 4.35 0
465 1 1 7.37 21.27 7.7 0
466 1 1 6.14 23.4 1 0
467 1 1 6.14 23.4 4.35 0
468 1 1 6.14 23.4 7.7 0
469 1 1 4.91 25.52 1 0
470 1 1 4.91 25.52 4.35 0
471 1 1 4.91 25.52 7.7 0
472 1 1 3.68 27.65 1 0
473 1 1 3.68 27.65 4.35 0
474 1 1 3.68 27.65 7.7 0
475 1 1 2.46 29.78 1 0
476 1 1 2.46 29.78 4.35 0
477 1 1 2.46 29.78 7.7 0
478 1 1 1.23 31.9 1 0
479 1 1 1.23 31.9 4.35 0
480 1 1 1.23 31.9 7.7 0
481 1 1 0 34.03 1 0
482 1 1 0 34.03 4.35 0
483 1 1 0 34.03 7.7 0
484 1 1 35.61 36.16 1 0
485 1 1 35.61 36.16 4.35 0
486 1 1 35.61 36.16 7.7 0
487 1 1 22.1 0 1 0
488 1 1 22.1 0 4.35 0
489 1 1 22.1 0 7.7 0
490 1 1 20.88 2.13 1 0
491 1 1 20.88 2.13 4.35 0
492 1 1 20.88 2.13 7.7 0
493 1 1 19.65 4.25 1 0
494 1 1 19.65 4.25 4.35 0
495 1 1 19.65 4.25 7.7 0
496 1 1 18.42 6.38 1 0
497 1 1 18.42 6.38 4.35 0
498 1 1 18.42 6.38 7.7 0
499 1 1 17.19 8.51 1 0
500 1 1 17.19 8.51 4.35 0
501 1 1 17.19 8.51 7.7 0
502 1 1 15.96 10.63 1 0
503 1 1 15.96 10.63 4.35 0
504 1 1 15.96 10.63 7.7 0
505 1 1 14.74 12.76 1 0
506 1 1 14.74 12.76 4.35 0
507 1 1 14.74 12.76 7.7 0
508 1 1 13.51 14.89 1 0
509 1 1 13.51 14.89 4.35 0
510 1 1 13.51 14.89 7.7 0
511 1 1 12.28 17.02 1 0
512 1 1 12.28 17.02 4.35 0
513 1 1 12.28 17.02 7.7 0
514 1 1 11.05 19.14 1 0
515 1 1 11.05 19.14 4.35 0
516 1 1 11.05 19.14 7.7 0
517 1 1 9.82 21.27 1 0
518 1 1 9.82 21.27 4.35 0
519 1 1 9.82 21.27 7.7 0
520 1 1 8.6 23.4 1 0
521 1 1 8.6 23.4 4.35 0
522 1 1 8.6 23.4 7.7 0
523 1 1 7.37 25.52 1 0
524 1 1 7.37 25.52 4.35 0
525 1 1 7.37 25.52 7.7 0
526 1 1 6.14 27.65 1 0
527 1 1 6.14 27.65 4.35 0
528 1 1 6.14 27.65 7.7 0
529 1 1 4.91 29.78 1 0
530 1 1 4.91 29.78 4.35 0
531 1 1 4.91 29.78 7.7 0
532 1 1 3.68 31.9 1 0
533 1 1 3.68 31.9 4.35 0
534 1 1 3.68 31.9 7.7 0
535 1 1 2.46 34.03 1 0
536 1 1 2.46 34.03 4.35 0
537 1 1 2.46 34.03 7.7 0
538 1 1 1.23 36.16 1 0
539 1 1 1.23 36.16 4.35 0
540 1 1 1.23 36.16 7.7 0
541 1 1 24.56 0 1 0
542 1 1 24.56 0 4.35 0
543 1 1 24.56 0 7.7 0
544 1 1 23.33 2.13 1 0
545 1 1 23.33 2.13 4.35 0
546 1 1 23.33 2.13 7.7 0
547 1 1 22.1 4.25 1 0
548 1 1 22.1 4.25 4.35 0
549 1 1 22.1 4.25 7.7 0
550 1 1 20.88 6.38 1 0
551 1 1 20.88 6.38 4.35 0
552 1 1 20.88 6.38 7.7 0
553 1 1 19.65 8.51 1 0
554 1 1 19.65 8.51 4.35 0
555 1 1 19.65 8.51 7.7 0
556 1 1 18.42 10.63 1 0
557 1 1 18.42 10.63 4.35 0
558 1 1 18.42 10.63 7.7 0
559 1 1 17.19 12.76 1 0
560 1 1 17.19 12.76 4.35 0
561 1 1 17.19 12.76 7.7 0
562 1 1 15.96 14.89 1 0
563 1 1 15.96 14.89 4.35 0
564 1 1 15.96 14.89 7.7 0
565 1 1 14.74 17.02 1 0
566 1 1 14.74 17.02 4.35 0
567 1 1 14.74 17.02 7.7 0
568 1 1 13.51 19.14 1 0
569 1 1 13.51 19.14 4.35 0
570 1 1 13.51 19.14 7.7 0
571 1 1 12.28 21.27 1 0
572 1 1 12.28 21.27 4.35 0
573 1 1 12.28 21.27 7.7 0
574 1 1 11.05 23.4 1 0
575 1 1 11.05 23.4 4.35 0
576 1 1 11.05 23.4 7.7 0
577 1 1 9.82 25.52 1 0
578 1 1 9.82 25.52 4.35 0
579 1 1 9.82 25.52 7.7 0
580 1 1 8.6 27.65 1 0
581 1 1 8.6 27.65 4.35 0
582 1 1 8.6 27.65 7.7 0
583 1 1 7.37 29.78 1 0
584 1 1 7.37 29.78 4.35 0
585 1 1 7.37 29.78 7.7 0
586 1 1 6.14 31.9 1 0
587 1 1 6.14 31.9 4.35 0
588 1 1 6.14 31.9 7.7 0
589 1 1 4.91 34.03 1 0
590 1 1 4.91 34.03 4.35 0
591 1 1 4.91 34.03 7.7 0
592 1 1 3.68 36.16 1 0
593 1 1 3.68 36.16 4.35 0
594 1 1 3.68 36.16 7.7 0
595 1 1 27.02 0 1 0
596 1 1 27.02 0 4.35 0
597 1 1 27.02 0 7.7 0
598 1 1 25.79 2.13 1 0
599 1 1 25.79 2.13 4.35 0
600 1 1 25.79 2.13 7.7 0
601 1 1 24.56 4.25 1 0
602 1 1 24.56 4.25 4.35 0
603 1 1 24.56 4.25 7.7 0
604 1 1 23.33 6.38 1 0
605 1 1 23.33 6.38 4.35 0
606 1 1 23.33 6.38 7.7 0
607 1 1 22.1 8.51 1 0
608 1 1 22.1 8.51 4.35 0
609 1 1 22.1 8.51 7.7 0
610 1 1 20.88 10.63 1 0
611 1 1 20.88 10.63 4.35 0
612 1 1 20.88 10.63 7.7 0
613 1 1 19.65 12.76 1 0
614 1 1 19.65 12.76 4.35 0
615 1 1 19.65 12.76 7.7 0
616 1 1 18.42 14.89 1 0
617 1 1 18.42 14.89 4.35 0
618 1 1 18.42 14.89 7.7 0
619 1 1 17.19 17.02 1 0
620 1 1 17.19 17.02 4.35 0
621 1 1 17.19 17.02 7.7 0
622 1 1 15.96 19.14 1 0
623 1 1 15.96 19.14 4.35 0
624 1 1 15.96 19.14 7.7 0
625 1 1 14.74 21.27 1 0
626 1 1 14.74 21.27 4.35 0
627 1 1 14.74 21.27 7.7 0
628 1 1 13.51 23.4 1 0
629 1 1 13.51 23.4 4.35 0
630 1 1 13.51 23.4 7.7 0
631 1 1 12.28 25.52 1 0
632 1 1 12.28 25.52 4.35 0
633 1 1 12.28 25.52 7.7 0
634 1 1 11.05 27.65 1 0
635 1 1 11.05 27.65 4.35 0
636 1 1 11.05 27.65 7.7 0
637 1 1 9.82 29.78 1 0
638 1 1 9.82 29.78 4.35 0
639 1 1 9.82 29.78 7.7 0
640 1 1 8.6 31.9 1 0
641 1 1 8.6 31.9 4.35 0
642 1 1 8.6 31.9 7.7 0
643 1 1 7.37 34.03 1 0
644 1 1 7.37 34.03 4.35 0
645 1 1 7.37 34.03 7.7 0
646 1 1 6.14 36.16 1 0
647 1 1 6.14 36.16 4.35 0
648 1 1 6.14 36.16 7.7 0
649 1 1 29.47 0 1 0
650 1 1 29.47 0 4.35 0
651 1 1 29.47 0 7.7 0
652 1 1 28.24 2.13 1 0
653 1 1 28.24 2.13 4.35 0
654 1 1 28.24 2.13 7.7 0
655 1 1 27.02 4.25 1 0
656 1 1 27.02 4.25 4.35 0
657 1 1 27.02 4.25 7.7 0
658 1 1 25.79 6.38 1 0
659 1 1 25.79 6.38 4.35 0
660 1 1 25.79 6.38 7.7 0
661 1 1 24.56 8.51 1 0
662 1 1 24.56 8.51 4.35 0
663 1 1 24.56 8.51 7.7 0
664 1 1 23.33 10.63 1 0
665 1 1 23.33 10.63 4.35 0
666 1 1 23.33 10.63 7.7 0
667 1 1 22.1 12.76 1 0
668 1 1 22.1 12.76 4.35 0
669 1 1 22.1 12.76 7.7 0
670 1 1 20.88 14.89 1 0
671 1 1 20.88 14.89 4.35 0
672 1 1 20.88 14.89 7.7 0
673 1 1 19.65 17.02 1 0
674 1 1 19.65 17.02 4.35 0
675 1 1 19.65 17.02 7.7 0
676 1 1 18.42 19.14 1 0
677 1 1 18.42 19.14 4.35 0
678 1 1 18.42 19.14 7.7 0
679 1 1 17.19 21.27 1 0
680 1 1 17.19 21.27 4.35 0
681 1 1 17.19 21.27 7.7 0
682 1 1 15.96 23.4 1 0
683 1 1 15.96 23.4 4.35 0
684 1 1 15.96 23.4 7.7 0
685 1 1 14.74 25.52 1 0
686 1 1 14.74 25.52 4.35 0
687 1 1 14.74 25.52 7.7 0
688 1 1 13.51 27.65 1 0
689 1 1 13.51 27.65 4.35 0
690 1 1 13.51 27.65 7.7 0
691 1 1 12.28 29.78 1 0
692 1 1 12.28 29.78 4.35 0
693 1 1 12.28 29.78 7.7 0
694 1 1 11.05 31.9 1 0
695 1 1 11.05 31.9 4.35 0
696 1 1 11.05 31.9 7.7 0
697 1 1 9.82 34.03 1 0
698 1 1 9.82 34.03 4.35 0
699 1 1 9.82 34.03 7.7 0
700 1 1 8.6 36.16 1 0
701 1 1 8.6 36.16 4.35 0
702 1 1 8.6 36.16 7.7 0
703 1 1 31.93 0 1 0
704 1 1 31.93 0 4.35 0
705 1 1 31.93 0 7.7 0
706 1 1 30.7 2.13 1 0
707 1 1 30.7 2.13 4.35 0
708 1 1 30.7 2.13 7.7 0
709 1 1 29.47 4.25 1 0
710 1 1 29.47 4.25 4.35 0
711 1 1 29.47 4.25 7.7 0
712 1 1 28.24 6.38 1 0
713 1 1 28.24 6.38 4.35 0
714 1 1 28.24 6.38 7.7 0
715 1 1 27.02 8.51 1 0
716 1 1 27.02 8.51 4.35 0
717 1 1 27.02 8.51 7.7 0
718 1 1 25.79 10.63 1 0
719 1 1 25.79 10.63 4.35 0
720 1 1 25.79 10.63 7.7 0
721 1 1 24.56 12.76 1 0
722 1 1 24.56 12.76 4.35 0
723 1 1 24.56 12.76 7.7 0
724 1 1 23.33 14.89 1 0
725 1 1 23.33 14.89 4.35 0
726 1 1 23.33 14.89 7.7 0
727 1 1 22.1 17.02 1 0
728 1 1 22.1 17.02 4.35 0
729 1 1 22.1 17.02 7.7 0
730 1 1 20.88 19.14 1 0
731 1 1 20.88 19.14 4.35 0
732 1 1 20.88 19.14 7.7 0
733 1 1 19.65 21.27 1 0
734 1 1 19.65 21.27 4.35 0
735 1 1 19.65 21.27 7.7 0
736 1 1 18.42 23.4 1 0
737 1 1 18.42 23.4 4.35 0
738 1 1 18.42 23.4 7.7 0
739 1 1 17.19 25.52 1 0
740 1 1 17.19 25.52 4.35 0
741 1 1 17.19 25.52 7.7 0
742 1 1 15.96 27.65 1 0
743 1 1 15.96 27.65 4.35 0
744 1 1 15.96 27.65 7.7 0
745 1 1 14.74 29.78 1 0
746 1 1 14.74 29.78 4.35 0
747 1 1 14.74 29.78 7.7 0
748 1 1 13.51 31.9 1 0
749 1 1 13.51 31.9 4.35 0
750 1 1 13.51 31.9 7.7 0
751 1 1 12.28 34.03 1 0
752 1 1 12.28 34.03 4.35 0
753 1 1 12.28 34.03 7.7 0
754 1 1 11.05 36.16 1 0
755 1 1 11.05 36.16 4.35 0
756 1 1 11.05 36.16 7.7 0
757 1 1 34.38 0 1 0
758 1 1 34.38 0 4.35 0
759 1 1 34.38 0 7.7 0
760 1 1 33.16 2.13 1 0
761 1 1 33.16 2.13 4.35 0
762 1 1 33.16 2.13 7.7 0
763 1 1 31.93 4.25 1 0
764 1 1 31.93 4.25 4.35 0
765 1 1 31.93 4.25 7.7 0
766 1 1 30.7 6.38 1 0
767 1 1 30.7 6.38 4.35 0
768 1 1 30.7 6.38 7.7 0
769 1 1 29.47 8.51 1 0
770 1 1 29.47 8.51 4.35 0
771 1 1 29.47 8.51 7.7 0
772 1 1 28.24 10.63 1 0
773 1 1 28.24 10.63 4.35 0
774 1 1 28.24 10.63 7.7 0
775 1 1 27.02 12.76 1 0
776 1 1 27.02 12.76 4.35 0
777 1 1 27.02 12.76 7.7 0
778 1 1 25.79 14.89 1 0
779 1 1 25.79 14.89 4.35 0
780 1 1 25.79 14.89 7.7 0
781 1 1 24.56 17.02 1 0
782 1 1 24.56 17.02 4.35 0
783 1 1 24.56 17.02 7.7 0
784 1 1 23.33 19.14 1 0
785 1 1 23.33 19.14 4.35 0
786 1 1 23.33 19.14 7.7 0
787 1 1 22.1 21.27 1 0
788 1 1 22.1 21.27 4.35 0
789 1 1 22.1 21.27 7.7 0
790 1 1 20.88 23.4 1 0
791 1 1 20.88 23.4 4.35 0
792 1 1 20.88 23.4 7.7 0
793 1 1 19.65 25.52 1 0
794 1 1 19.65 25.52 4.35 0
795 1 1 19.65 25.52 7.7 0
796 1 1 18.42 27.65 1 0
797 1 1 18.42 27.65 4.35 0
798 1 1 18.42 27.65 7.7 0
799 1 1 17.19 29.78 1 0
800 1 1 17.19 29.78 4.35 0
801 1 1 17.19 29.78 7.7 0
802 1 1 15.96 31.9 1 0
803 1 1 15.96 31.9 4.35 0
804 1 1 15.96 31.9 7.7 0
805 1 1 14.74 34.03 1 0
806 1 1 14.74 34.03 4.35 0
807 1 1 14.74 34.03 7.7 0
808 1 1 13.51 36.16 1 0
809 1 1 13.51 36.16 4.35 0
810 1 1 13.51 36.16 7.7 0
811 1 1 1.23 0.71 1 0
812 1 1 1.23 0.71 4.35 0
813 1 1 1.23 0.71 7.7 0
814 1 1 0 2.84 1 0
815 1 1 0 2.84 4.35 0
816 1 1 0 2.84 7.7 0
817 1 1 35.61 4.96 1 0
818 1 1 35.61 4.96 4.35 0
819 1 1 35.61 4.96 7.7 0
820 1 1 34.38 7.09 1 0
821 1 1 34.38 7.09 4.35 0
822 1 1 34.38 7.09 7.7 0
823 1 1 33.16 9.22 1 0
824 1 1 33.16 9.22 4.35 0
825 1 1 33.16 9.22 7.7 0
826 1 1 31.93 11.34 1 0
827 1 1 31.93 11.34 4.35 0
828 1 1 31.93 11.34 7.7 0
829 1 1 30.7 13.47 1 0
830 1 1 30.7 13.47 4.35 0
831 1 1 30.7 13.47 7.7 0
832 1 1 29.47 15.6 1 0
833 1 1 29.47 15.6 4.35 0
834 1 1 29.47 15.6 7.7 0
835 1 1 28.24 17.72 1 0
836 1 1 28.24 17.72 4.35 0
837 1 1 28.24 17.72 7.7 0
838 1 1 27.02 19.85 1 0
839 1 1 27.02 19.85 4.35 0
840 1 1 27.02 19.85 7.7 0
841 1 1 25.79 21.98 1 0
842 1 1 25.79 21.98 4.35 0
843 1 1 25.79 21.98 7.7 0
844 1 1 24.56 24.11 1 0
845 1 1 24.56 24.11 4.35 0
846 1 1 24.56 24.11 7.7 0
847 1 1 23.33 26.23 1 0
848 1 1 23.33 26.23 4.35 0
849 1 1 23.33 26.23 7.7 0
850 1 1 22.1 28.36 1 0
851 1 1 22.1 28.36 4.35 0
852 1 1 22.1 28.36 7.7 0
853 1 1 20.88 30.49 1 0
854 1 1 20.88 30.49 4.35 0
855 1 1 20.88 30.49 7.7 0
856 1 1 19.65 32.61 1 0
857 1 1 19.65 32.61 4.35 0
858 1 1 19.65 32.61 7.7 0
859 1 1 18.42 34.74 1 0
860 1 1 18.42 34.74 4.35 0
861 1 1 18.42 34.74 7.7 0
862 1 1 17.19 36.87 1 0
863 1 1 17.19 36.87 4.35 0
864 1 1 17.19 36.87 7.7 0
865 1 1 3.68 0.71 1 0
866 1 1 3.68 0.71 4.35 0
867 1 1 3.68 0.71 7.7 0
868 1 1 2.46 2.84 1 0
869 1 1 2.46 2.84 4.35 0
870 1 1 2.46 2.84 7.7 0
871 1 1 1.23 4.96 1 0
872 1 1 1.23 4.96 4.35 0
873 1 1 1.23 4.96 7.7 0
874 1 1 0 7.09 1 0
875 1 1 0 7.09 4.35 0
876 1 1 0 7.09 7.7 0
877 1 1 35.61 9.22 1 0
878 1 1 35.61 9.22 4.35 0
879 1 1 35.61 9.22 7.7 0
880 1 1 34.38 11.34 1 0
881 1 1 34.38 11.34 4.35 0
882 1 1 34.38 11.34 7.7 0
883 1 1 33.16 13.47 1 0
884 1 1 33.16 13.47 4.35 0
885 1 1 33.16 13.47 7.7 0
886 1 1 31.93 15.6 1 0
887 1 1 31.93 15.6 4.35 0
888 1 1 31.93 15.6 7.7 0
889 1 1 30.7 17.72 1 0
890 1 1 30.7 17.72 4.35 0
891 1 1 30.7 17.72 7.7 0
892 1 1 29.47 19.85 1 0
893 1 1 29.47 19.85 4.35 0
894 1 1 29.47 19.85 7.7 0
895 1 1 28.24 21.98 1 0
896 1 1 28.24 21.98 4.35 0
897 1 1 28.24 21.98 7.7 0
898 1 1 27.02 24.11 1 0
899 1 1 27.02 24.11 4.35 0
900 1 1 27.02 24.11 7.7 0
901 1 1 25.79 26.23 1 0
902 1 1 25.79 26.23 4.35 0
903 1 1 25.79 26.23 7.7 0
904 1 1 24.56 28.36 1 0
905 1 1 24.56 28.36 4.35 0
906 1 1 24.56 28.36 7.7 0
907 1 1 23.33 30.49 1 0
908 1 1 23.33 30.49 4.35 0
909 1 1 23.33 30.49 7.7 0
910 1 1 22.1 32.61 1 0
911 1 1 22.1 32.61 4.35 0
912 1 1 22.1 32.61 7.7 0
913 1 1 20.88 34.74 1 0
914 1 1 20.88 34.74 4.35 0
915 1 1 20.88 34.74 7.7 0
916 1 1 19.65 36.87 1 0
917 1 1 19.65 36.87 4.35 0
918 1 1 19.65 36.87 7.7 0
919 1 1 6.14 0.71 1 0
920 1 1 6.14 0.71 4.35 0
921 1 1 6.14 0.71 7.7 0
922 1 1 4.91 2.84 1 0
923 1 1 4.91 2.84 4.35 0
924 1 1 4.91 2.84 7.7 0
925 1 1 3.68 4.96 1 0
926 1 1 3.68 4.96 4.35 0
927 1 1 3.68 4.96 7.7 0
928 1 1 2.46 7.09 1 0
929 1 1 2.46 7.09 4.35 0
930 1 1 2.46 7.09 7.7 0
931 1 1 1.23 9.22 1 0
932 1 1 1.23 9.22 4.35 0
933 1 1 1.23 9.22 7.7 0
934 1 1 0 11.34 1 0
935 1 1 0 11.34 4.35 0
936 1 1 0 11.34 7.7 0
937 1 1 35.61 13.47 1 0
938 1 1 35.61 13.47 4.35 0
939 1 1 35.61 13.47 7.7 0
940 1 1 34.38 15.6 1 0
941 1 1 34.38 15.6 4.35 0
942 1 1 34.38 15.6 7.7 0
943 1 1 33.16 17.72 1 0
944 1 1 33.16 17.72 4.35 0
945 1 1 33.16 17.72 7.7 0
946 1 1 31.93 19.85 1 0
947 1 1 31.93 19.85 4.35 0
948 1 1 31.93 19.85 7.7 0
949 1 1 30.7 21.98 1 0
950 1 1 30.7 21.98 4.35 0
951 1 1 30.7 21.98 7.7 0
952 1 1 29.47 24.11 1 0
953 1 1 29.47 24.11 4.35 0
954 1 1 29.47 24.11 7.7 0
955 1 1 28.24 26.23 1 0
956 1 1 28.24 26.23 4.35 0
957 1 1 28.24 26.23 7.7 0
958 1 1 27.02 28.36 1 0
959 1 1 27.02 28.36 4.35 0
960 1 1 27.02 28.36 7.7 0
961 1 1 25.79 30.49 1 0
962 1 1 25.79 30.49 4.35 0
963 1 1 25.79 30.49 7.7 0
964 1 1 24.56 32.61 1 0
965 1 1 24.56 32.61 4.35 0
966 1 1 24.56 32.61 7.7 0
967 1 1 23.33 34.74 1 0
968 1 1 23.33 34.74 4.35 0
969 1 1 23.33 34.74 7.7 0
970 1 1 22.1 36.87 1 0
971 1 1 22.1 36.87 4.35 0
972 1 1 22.1 36.87 7.7 0
973 1 1 8.6 0.71 1 0
974 1 1 8.6 0.71 4.35 0
975 1 1 8.6 0.71 7.7 0
976 1 1 7.37 2.84 1 0
977 1 1 7.37 2.84 4.35 0
978 1 1 7.37 2.84 7.7 0
979 1 1 6.14 4.96 1 0
980 1 1 6.14 4.96 4.35 0
981 1 1 6.14 4.96 7.7 0
982 1 1 4.91 7.09 1 0
983 1 1 4.91 7.09 4.35 0
984 1 1 4.91 7.09 7.7 0
985 1 1 3.68 9.22 1 0
986 1 1 3.68 9.22 4.35 0
987 1 1 3.68 9.22 7.7 0
988 1 1 2.46 11.34 1 0
989 1 1 2.46 11.34 4.35 0
990 1 1 2.46 11.34 7.7 0
991 1 1 1.23 13.47 1 0
992 1 1 1.23 13.47 4.35 0
993 1 1 1.23 13.47 7.7 0
994 1 1 0 15.6 1 0
995 1 1 0 15.6 4.35 0
996 1 1 0 15.6 7.7 0
997 1 1 35.61 17.72 1 0
998 1 1 35.61 17.72 4.35 0
999 1 1 35.61 17.72 7.7 0
1000 1 1 34.38 19.85 1 0
1001 1 1 34.38 19.85 4.35 0
1002 1 1 34.38 19.85 7.7 0
1003 1 1 33.16 21.98 1 0
1004 1 1 33.16 21.98 4.35 0
1005 1 1 33.16 21.98 7.7 0
1006 1 1 31.93 24.11 1 0
1007 1 1 31.93 24.11 4.35 0
1008 1 1 31.93 24.11 7.7 0
1009 1 1 30.7 26.23 1 0
1010 1 1 30.7 26.23 4.35 0
1011 1 1 30.7 26.23 7.7 0
1012 1 1 29.47 28.36 1 0
1013 1 1 29.47 28.36 4.35 0
1014 1 1 29.47 28.36 7.7 0
1015 1 1 28.24 30.49 1 0
1016 1 1 28.24 30.49 4.35 0
1017 1 1 28.24 30.49 7.7 0
1018 1 1 27.02 32.61 1 0
1019 1 1 27.02 32.61 4.35 0
1020 1 1 27.02 32.61 7.7 0
1021 1 1 25.79 34.74 1 0
1022 1 1 25.79 34.74 4.35 0
1023 1 1 25.79 34.74 7.7 0
1024 1 1 24.56 36.87 1 0
1025 1 1 24.56 36.87 4.35 0
1026 1 1 24.56 36.87 7.7 0
1027 1 1 11.05 0.71 1 0
1028 1 1 11.05 0.71 4.35 0
1029 1 1 11.05 0.71 7.7 0
1030 1 1 9.82 2.84 1 0
1031 1 1 9.82 2.84 4.35 0
1032 1 1 9.82 2.84 7.7 0
1033 1 1 8.6 4.96 1 0
1034 1 1 8.6 4.96 4.35 0
1035 1 1 8.6 4.96 7.7 0
1036 1 1 7.37 7.09 1 0
1037 1 1 7.37 7.09 4.35 0
1038 1 1 7.37 7.09 7.7 0
1039 1 1 6.14 9.22 1 0
1040 1 1 6.14 9.22 4.35 0
1041 1 1 6.14 9.22 7.7 0
1042 1 1 4.91 11.34 1 0
1043 1 1 4.91 11.34 4.35 0
1044 1 1 4.91 11.34 7.7 0
1045 1 1 3.68 13.47 1 0
1046 1 1 3.68 13.47 4.35 0
1047 1 1 3.68 13.47 7.7 0
1048 1 1 2.46 15.6 1 0
1049 1 1 2.46 15.6 4.35 0
1050 1 1 2.46 15.6 7.7 0
1051 1 1 1.23 17.72 1 0
1052 1 1 1.23 17.72 4.35 0
1053 1 1 1.23 17.72 7.7 0
1054 1 1 0 19.85 1 0
1055 1 1 0 19.85 4.35 0
1056 1 1 0 19.85 7.7 0
1057 1 1 35.61 21.98 1 0
1058 1 1 35.61 21.98 4.35 0
1059 1 1 35.61 21.98 7.7 0
1060 1 1 34.38 24.11 1 0
1061 1 1 34.38 24.11 4.35 0
1062 1 1 34.38 24.11 7.7 0
1063 1 1 33.16 26.23 1 0
1064 1 1 33.16 26.23 4.35 0
1065 1 1 33.16 26.23 7.7 0
1066 1 1 31.93 28.36 1 0
1067 1 1 31.93 28.36 4.35 0
1068 1 1 31.93 28.36 7.7 0
1069 1 1 30.7 30.49 1 0
1070 1 1 30.7 30.49 4.35 0
1071 1 1 30.7 30.49 7.7 0
1072 1 1 29.47 32.61 1 0
1073 1 1 29.47 32.61 4.35 0
1074 1 1 29.47 32.61 7.7 0
1075 1 1 28.24 34.74 1 0
1076 1 1 28.24 34.74 4.35 0
1077 1 1 28.24 34.74 7.7 0
1078 1 1 27.02 36.87 1 0
1079 1 1 27.02 36.87 4.35 0
1080 1 1 27.02 36.87 7.7 0
1081 1 1 13.51 0.71 1 0
1082 1 1 13.51 0.71 4.35 0
1083 1 1 13.51 0.71 7.7 0
1084 1 1 12.28 2.84 1 0
1085 1 1 12.28 2.84 4.35 0
1086 1 1 12.28 2.84 7.7 0
1087 1 1 11.05 4.96 1 0
1088 1 1 11.05 4.96 4.35 0
1089 1 1 11.05 4.96 7.7 0
1090 1 1 9.82 7.09 1 0
1091 1 1 9.82 7.09 4.35 0
1092 1 1 9.82 7.09 7.7 0
1093 1 1 8.6 9.22 1 0
1094 1 1 8.6 9.22 4.35 0
1095 1 1 8.6 9.22 7.7 0
1096 1 1 7.37 11.34 1 0
1097 1 1 7.37 11.34 4.35 0
1098 1 1 7.37 11.34 7.7 0
1099 1 1 6.14 13.47 1 0
1100 1 1 6.14 13.47 4.35 0
1101 1 1 6.14 13.47 7.7 0
1102 1 1 4.91 15.6 1 0
1103 1 1 4.91 15.6 4.35 0
1104 1 1 4.91 15.6 7.7 0
1105 1 1 3.68 17.72 1 0
1106 1 1 3.68 17.72 4.35 0
1107 1 1 3.68 17.72 7.7 0
1108 1 1 2.46 19.85 1 0
1109 1 1 2.46 19.85 4.35 0
1110 1 1 2.46 19.85 7.7 0
1111 1 1 1.23 21.98 1 0
1112 1 1 1.23 21.98 4.35 0
1113 1 1 1.23 21.98 7.7 0
1114 1 1 0 24.11 1 0
1115 1 1 0 24.11 4.35 0
1116 1 1 0 24.11 7.7 0
1117 1 1 35.61 26.23 1 0
1118 1 1 35.61 26.23 4.35 0
1119 1 1 35.61 26.23 7.7 0
1120 1 1 34.38 28.36 1 0
1121 1 1 34.38 28.36 4.35 0
1122 1 1 34.38 28.36 7.7 0
1123 1 1 33.16 30.49 1 0
1124 1 1 33.16 30.49 4.35 0
1125 1 1 33.16 30.49 7.7 0
1126 1 1 31.93 32.61 1 0
1127 1 1 31.93 32.61 4.35 0
1128 1 1 31.93 32.61 7.7 0
1129 1 1 30.7 34.74 1 0
1130 1 1 30.7 34.74 4.35 0
1131 1 1 30.7 34.74 7.7 0
1132 1 1 29.47 36.87 1 0
1133 1 1 29.47 36.87 4.35 0
1134 1 1 29.47 36.87 7.7 0
1135 1 1 15.96 0.71 1 0
1136 1 1 15.96 0.71 4.35 0
1137 1 1 15.96 0.71 7.7 0
1138 1 1 14.74 2.84 1 0
1139 1 1 14.74 2.84 4.35 0
1140 1 1 14.74 2.84 7.7 0
1141 1 1 13.51 4.96 1 0
1142 1 1 13.51 4.96 4.35 0
1143 1 1 13.51 4.96 7.7 0
1144 1 1 12.28 7.09 1 0
1145 1 1 12.28 7.09 4.35 0
1146 1 1 12.28 7.09 7.7 0
1147 1 1 11.05 9.22 1 0
1148 1 1 11.05 9.22 4.35 0
1149 1 1 11.05 9.22 7.7 0
1150 1 1 9.82 11.34 1 0
1151 1 1 9.82 11.34 4.35 0
1152 1 1 9.82 11.34 7.7 0
1153 1 1 8.6 13.47 1 0
1154 1 1 8.6 13.47 4.35 0
1155 1 1 8.6 13.47 7.7 0
1156 1 1 7.37 15.6 1 0
1157 1 1 7.37 15.6 4.35 0
1158 1 1 7.37 15.6 7.7 0
1159 1 1 6.14 17.72 1 0
1160 1 1 6.14 17.72 4.35 0
1161 1 1 6.14 17.72 7.7 0
1162 1 1 4.91 19.85 1 0
1163 1 1 4.91 19.85 4.35 0
1164 1 1 4.91 19.85 7.7 0
1165 1 1 3.68 21.98 1 0
1166 1 1 3.68 21.98 4.35 0
1167 1 1 3.68 21.98 7.7 0
1168 1 1 2.46 24.11 1 0
1169 1 1 2.46 24.11 4.35 0
1170 1 1 2.46 24.11 7.7 0
1171 1 1 1.23 26.23 1 0
1172 1 1 1.23 26.23 4.35 0
1173 1 1 1.23 26.23 7.7 0
1174 1 1 0 28.36 1 0
1175 1 1 0 28.36 4.35 0
1176 1 1 0 28.36 7.7 0
1177 1 1 35.61 30.49 1 0
1178 1 1 35.61 30.49 4.35 0
1179 1 1 35.61 30.49 7.7 0
1180 1 1 34.38 32.61 1 0
1181 1 1 34.38 32.61 4.35 0
1182 1 1 34.38 32.61 7.7 0
1183 1 1 33.16 34.74 1 0
1184 1 1 33.16 34.74 4.35 0
1185 1 1 33.16 34.74 7.7 0
1186 1 1 31.93 36.87 1 0
1187 1 1 31.93 36.87 4.35 0
1188 1 1 31.93 36.87 7.7 0
1189 1 1 18.42 0.71 1 0
1190 1 1 18.42 0.71 4.35 0
1191 1 1 18.42 0.71 7.7 0
1192 1 1 17.19 2.84 1 0
1193 1 1 17.19 2.84 4.35 0
1194 1 1 17.19 2.84 7.7 0
1195 1 1 15.96 4.96 1 0
1196 1 1 15.96 4.96 4.35 0
1197 1 1 15.96 4.96 7.7 0
1198 1 1 14.74 7.09 1 0
1199 1 1 14.74 7.09 4.35 0
1200 1 1 14.74 7.09 7.7 0
1201 1 1 13.51 9.22 1 0
1202 1 1 13.51 9.22 4.35 0
1203 1 1 13.51 9.22 7.7 0
1204 1 1 12.28 11.34 1 0