units               real
dimension           3
# processors          2 2 16
# processors          2 2 8
#processors          4 8 2
processors          * * 2

### only two periodic boundaries
boundary            p p f
atom_style          full
newton              on

##force field
pair_style          lj/cut/coul/long 12 12
angle_style         harmonic
bond_style          harmonic
dihedral_style      opls
improper_style      cvff
kspace_style        pppm/conp 1.0e-5
kspace_modify       slab 3.0
pair_modify         mix geometric  ## should be default anyway
#kspace_style        pppm 1.0e-4
##atom definition

if "${if_restart} == 0" then     "read_data         sample.data"
read_data         sample.data
Reading data file ...
  orthogonal box = (0.0000000 0.0000000 0.0000000) to (36.840000 38.285251 137.40000)
  4 by 4 by 2 MPI processor grid
  reading atoms ...
  15471 atoms
  scanning bonds ...
  4 = max bonds/atom
  scanning angles ...
  6 = max angles/atom
  scanning dihedrals ...
  6 = max dihedrals/atom
  reading bonds ...
  9784 bonds
  reading angles ...
  13694 angles
  reading dihedrals ...
  11736 dihedrals
Finding 1-2 1-3 1-4 neighbors ...
  special bond factors lj:    0        0        0       
  special bond factors coul:  0        0        0       
     4 = max # of 1-2 neighbors
     6 = max # of 1-3 neighbors
    12 = max # of 1-4 neighbors
    14 = max # of special neighbors
  special bonds CPU = 0.003 seconds
  read_data CPU = 0.190 seconds

if "${if_restart} == 1" then     "read_restart         file.restart.*"

special_bonds lj/coul 0.0 0.0 0.5 ## for opls lopes kpl
Finding 1-2 1-3 1-4 neighbors ...
  special bond factors lj:    0        0        0.5     
  special bond factors coul:  0        0        0.5     
     4 = max # of 1-2 neighbors
     6 = max # of 1-3 neighbors
    12 = max # of 1-4 neighbors
    14 = max # of special neighbors
  special bonds CPU = 0.001 seconds

##setting
# neighbor            2 bin

variable etype equal 1
group cdc type 1
3240 atoms in group cdc
group sol subtract all cdc
12231 atoms in group sol

group allatom union cdc sol
15471 atoms in group allatom

group leftele molecule 2
1620 atoms in group leftele
group rightele molecule 1
1620 atoms in group rightele

variable q atom q
compute qleft leftele reduce sum v_q
compute qright rightele reduce sum v_q
compute tempsl sol temp


##outputs
thermo              100
neigh_modify every 2 delay 0 check yes
thermo_style custom step c_tempsl c_qleft c_qright # f_e
thermo_modify flush yes
#thermo_modify warn 5
dump 6 allatom custom 1000 conp.lammpstrj id mol type x y z q
dump_modify 6 sort id
if "${if_restart} == 1" then     "dump_modify 6 append yes"

dump 7 all xtc 1000 conp.xtc
dump_modify 7 sort id

##run_style           verlet
timestep            2
velocity cdc set 0.0 0.0 0.0
# fix freezecdc cdc setforce 0.0 0.0 0.0
#minimize 1.0e-4 1.0e-6 100 1000

# fix constrainH all shake 0.0001 20 0 m 1.007947
if "${if_wat} == 0" then "fix constrainH all shake 0.0001 20 0 m 1.007947"
if "${if_wat} == 1" then "fix constrainH all shake 0.0001 20 0 m 1.007947 a 1"
fix constrainH all shake 0.0001 20 0 m 1.007947 a 1
       0 = # of size 2 clusters
       0 = # of size 3 clusters
       0 = # of size 4 clusters
    1469 = # of frozen angles
  find clusters CPU = 0.001 seconds

fix 1 sol nvt temp ${temperature} ${temperature} $(100.0*dt)
fix 1 sol nvt temp 400 ${temperature} $(100.0*dt)
fix 1 sol nvt temp 400 400 $(100.0*dt)
fix 1 sol nvt temp 400 400 200

variable cstep1 equal step

if "${cstep1} < 100000" then     "restart 100000 file.restart"     "run 100000 upto"
restart 100000 file.restart
run 100000 upto
PPPM initialization ...
  using 12-bit tables for long-range coulomb (src/kspace.cpp:340)
  G vector (1/distance) = 0.24129467
  grid = 24 25 160
  stencil order = 5
  estimated absolute RMS force accuracy = 0.0035744245
  estimated relative force accuracy = 1.0764273e-05
  using double precision FFTW3
  3d grid and FFT values/proc = 22984 5628
Neighbor list info ...
  update every 2 steps, delay 0 steps, check yes
  max neighbors/atom: 2000, page size: 100000
  master list distance cutoff = 14
  ghost atom cutoff = 14
  binsize = 7, bins = 6 6 20
  1 neighbor lists, perpetual/occasional/extra = 1 0 0
  (1) pair lj/cut/coul/long, perpetual
      attributes: half, newton on
      pair build: half/bin/newton
      stencil: half/bin/3d
      bin: standard
WARNING: Inconsistent image flags (src/domain.cpp:813)
Per MPI rank memory allocation (min/avg/max) = 15.29 | 15.77 | 16.35 Mbytes
Step c_tempsl c_qleft c_qright 
       0            0            0            0 
     100    230.82148            0            0 
     200    233.56772            0            0 
     300    273.98894            0            0 
     400    279.29541            0            0 
     500    313.61838            0            0 
     600    350.53021            0            0 
     700    351.55287            0            0 
     800    398.68785            0            0 
     900    402.17144            0            0 
    1000    418.60828            0            0 
    1100    400.04903            0            0 
    1200    399.28439            0            0 
    1300    393.37412            0            0 
    1400    398.18231            0            0 
    1500    401.22602            0            0 
    1600    400.46008            0            0 
